# vtk DataFile Version 2.0
output of FEM program
ASCII

DATASET UNSTRUCTURED_GRID
POINTS 4 float
    0.000000e+00    0.000000e+00    0.000000e+00
    1.000000e+00    0.000000e+00    0.000000e+00
    0.000000e+00    1.000000e+00    0.000000e+00
    1.000000e+00    1.000000e+00    0.000000e+00

CELLS 2 8

333
333
333


333
333
333


CELL_TYPES 2
9
9

POINT_DATA 4
VECTORS displacement float
0.000000e+000.000000e+00-3.000001e-040.000000e+00
CELL_DATA 2
SCALARS mises stress float
LOOKUP_TABLE default

